 # Bcc AlNi alloy oriented X=[100] Y=[010] Z=[001].
 
          54  atoms
           5  atom types
 
      0.000000000000      10.572000000000  xlo xhi
      0.000000000000      10.572000000000  ylo yhi
      0.000000000000      10.572000000000  zlo zhi
 
Masses
 
1 26.9815385  # Al
2 58.933194  # Co
3 52.0  # Cr
4 55.845  # Fe
5 58.6934  # Ni
 
Atoms # atomic
 
         1    1        0.000000000000       0.000000000000       0.000000000000
         2    2        1.762000000000       1.762000000000       1.762000000000
         3    1        3.524000000000       0.000000000000       0.000000000000
         4    2        5.286000000000       1.762000000000       1.762000000000
         5    1        7.048000000000       0.000000000000       0.000000000000
         6    2        8.810000000000       1.762000000000       1.762000000000
         7    1        0.000000000000       3.524000000000       0.000000000000
         8    2        1.762000000000       5.286000000000       1.762000000000
         9    1        3.524000000000       3.524000000000       0.000000000000
        10    2        5.286000000000       5.286000000000       1.762000000000
        11    1        7.048000000000       3.524000000000       0.000000000000
        12    2        8.810000000000       5.286000000000       1.762000000000
        13    1        0.000000000000       7.048000000000       0.000000000000
        14    2        1.762000000000       8.810000000000       1.762000000000
        15    1        3.524000000000       7.048000000000       0.000000000000
        16    2        5.286000000000       8.810000000000       1.762000000000
        17    1        7.048000000000       7.048000000000       0.000000000000
        18    2        8.810000000000       8.810000000000       1.762000000000
        19    1        0.000000000000       0.000000000000       3.524000000000
        20    2        1.762000000000       1.762000000000       5.286000000000
        21    1        3.524000000000       0.000000000000       3.524000000000
        22    2        5.286000000000       1.762000000000       5.286000000000
        23    1        7.048000000000       0.000000000000       3.524000000000
        24    2        8.810000000000       1.762000000000       5.286000000000
        25    1        0.000000000000       3.524000000000       3.524000000000
        26    2        1.762000000000       5.286000000000       5.286000000000
        27    1        3.524000000000       3.524000000000       3.524000000000
        28    2        5.286000000000       5.286000000000       5.286000000000
        29    1        7.048000000000       3.524000000000       3.524000000000
        30    2        8.810000000000       5.286000000000       5.286000000000
        31    1        0.000000000000       7.048000000000       3.524000000000
        32    2        1.762000000000       8.810000000000       5.286000000000
        33    1        3.524000000000       7.048000000000       3.524000000000
        34    2        5.286000000000       8.810000000000       5.286000000000
        35    1        7.048000000000       7.048000000000       3.524000000000
        36    2        8.810000000000       8.810000000000       5.286000000000
        37    1        0.000000000000       0.000000000000       7.048000000000
        38    2        1.762000000000       1.762000000000       8.810000000000
        39    1        3.524000000000       0.000000000000       7.048000000000
        40    2        5.286000000000       1.762000000000       8.810000000000
        41    1        7.048000000000       0.000000000000       7.048000000000
        42    2        8.810000000000       1.762000000000       8.810000000000
        43    1        0.000000000000       3.524000000000       7.048000000000
        44    2        1.762000000000       5.286000000000       8.810000000000
        45    1        3.524000000000       3.524000000000       7.048000000000
        46    2        5.286000000000       5.286000000000       8.810000000000
        47    1        7.048000000000       3.524000000000       7.048000000000
        48    2        8.810000000000       5.286000000000       8.810000000000
        49    1        0.000000000000       7.048000000000       7.048000000000
        50    2        1.762000000000       8.810000000000       8.810000000000
        51    1        3.524000000000       7.048000000000       7.048000000000
        52    2        5.286000000000       8.810000000000       8.810000000000
        53    1        7.048000000000       7.048000000000       7.048000000000
        54    2        8.810000000000       8.810000000000       8.810000000000
